
 2108  0.0000000e+00
  11.7080943  11.6074288  11.7364807  12.6800943  12.0374288  11.9794807
  12.8660943  12.9014288  11.3414807  13.4590943  11.2924288  11.8174807
  12.7320943  12.4894288  13.4404807  11.7360943  12.3224288  14.1144807
  13.9400943  12.9304288  13.8904807  14.7660943  12.7894288  13.3264807
  14.1040943  13.4794288  15.2284807  13.2210943  14.0624288  15.4904807
  14.2190943  12.2914288  16.2084807  13.3310943  11.6644288  16.1254807
  15.4560943  11.4684288  15.8664807  16.3450943  12.0944288  15.9494807
  15.5380943  10.6294288  16.5584807  15.3730943  11.0914288  14.8474807
  14.3370943  12.8184288  17.6344807  13.4530943  13.4064288  17.8794807
  14.4180943  11.9804288  18.3264807  15.2250943  13.4454288  17.7184807
  15.2430943  14.4444288  15.2774807  16.0020943  14.6444288  14.3154807
  15.4030943  15.1494288  16.4044807  14.6590943  15.1604288  17.0884807
  16.6410943  15.9244288  16.6954807  17.3430943  15.8134288  15.8694807
  16.3900943  16.9784288  16.8194807  17.0980943  15.5504288  17.6124807
  13.9400943  12.9304288  13.8904807  14.7660943  12.7894288  13.3264807
  14.1040943  13.4794288  15.2284807  13.2210943  14.0624288  15.4904807
  14.2190943  12.2914288  16.2084807  13.3310943  11.6644288  16.1254807
  15.4560943  11.4684288  15.8664807  16.3450943  12.0944288  15.9494807
  15.5380943  10.6294288  16.5584807  15.3730943  11.0914288  14.8474807
  14.3370943  12.8184288  17.6344807  13.4530943  13.4064288  17.8794807
  14.4180943  11.9804288  18.3264807  15.2250943  13.4454288  17.7184807
  15.2430943  14.4444288  15.2774807  16.0020943  14.6444288  14.3154807
  26.5180943  22.6744288  22.2064807  26.4380943  21.7594288  21.9364807
  26.1050943  23.1714288  21.5004807  24.6500943  24.4524288  24.0874807
  23.8740943  23.9724288  24.3774807  25.3010943  23.7724288  23.9134807
  18.6670943  24.7644288  24.9654807  17.8350943  24.5094288  25.3654807
  19.2750943  24.8354288  25.7014807  17.0760943  19.7244288  18.7494807
  16.1870943  20.0664288  18.6474807  17.3600943  19.5244288  17.8574807
  15.0390943  22.3254288  24.6334807  15.6110943  21.5574288  24.6344807
  15.0390943  22.6234288  23.7244807  24.0910943  27.1284288  24.0944807
  24.0220943  26.1874288  23.9334807  24.8530943  27.2184288  24.6674807
  16.2820943  17.7334288  26.4204807  16.1020943  16.8364288  26.7004807
  15.8800943  18.2804288  27.0954807  25.1210943  19.9354288  24.3214807
  25.4980943  19.0624288  24.2094807  25.0230943  20.2704288  23.4304807
  19.2520943  18.3074288  19.7834807  19.3590943  19.2084288  20.0904807
  18.3410943  18.2594288  19.4934807  16.9000943  20.2294288  25.0284807
  17.5810943  20.4934288  25.6474807  16.5850943  19.3894288  25.3624807
  21.0930943  21.2764288  24.1164807  21.6000943  21.7744288  24.7564807
  21.6240943  20.4994288  23.9404807  19.3760943  15.9164288  28.3824807
  19.3780943  16.4334288  27.5774807  18.5470943  15.4394288  28.3594807
  25.7630943  26.0284288  19.8814807  25.1450943  26.4934288  19.3174807
  26.2760943  26.7204288  20.2984807  20.6270943  25.5554288  26.5594807
  20.2940943  26.1824288  27.2014807  20.8030943  26.0814288  25.7794807
  19.0580943  17.6274288  26.3894807  19.4000943  18.4714288  26.0944807
  18.1190943  17.7754288  26.5054807  19.8380943  27.5234288  28.3744807
  20.4560943  28.1984288  28.0934807  18.9780943  27.9324288  28.2834807
  15.1320943  26.7134288  17.2554807  14.7550943  27.2024288  16.5234807
  15.3890943  27.3864288  17.8864807  22.7410943  15.1154288  22.7134807
  23.0480943  14.5604288  21.9974807  21.8110943  15.2494288  22.5314807
  27.6910943  25.7354288  26.3324807  28.1080943  25.5214288  25.4984807
  28.4150943  25.9924288  26.9034807  25.1290943  23.1804288  19.4494807
  24.2020943  23.1144288  19.6784807  25.2810943  24.1184288  19.3354807
  25.1160943  19.4514288  16.4464807  24.1760943  19.6134288  16.5314807
  25.4340943  20.1704288  15.9004807  28.6010943  20.9204288  27.3704807
  28.1880943  21.7464288  27.6244807  27.8690943  20.3354288  27.1774807
  20.7340943  23.7064288  22.2314807  20.3300943  22.9944288  21.7364807
  20.8210943  23.3624288  23.1204807  21.2030943  27.3934288  24.3954807
  20.9050943  26.7884288  23.7164807  22.1530943  27.4314288  24.2844807
  19.4470943  20.4814288  26.0114807  19.9990943  20.5904288  25.2374807
  19.9620943  20.8544288  26.7274807  27.3350943  23.9814288  16.9604807
  27.7740943  23.1434288  16.8144807  28.0480943  24.6134288  17.0474807
  17.4350943  22.6014288  19.7324807  17.3150943  23.3274288  19.1204807
  17.1250943  21.8314288  19.2554807  15.0730943  25.7724288  25.5394807
  15.1510943  25.9074288  24.5954807  15.6880943  25.0644288  25.7324807
  16.3180943  27.4724288  21.9504807  15.9110943  27.6144288  21.0954807
  17.2090943  27.1884288  21.7474807  15.1290943  26.8144288  28.0784807
  15.2920943  26.3444288  27.2604807  15.5950943  26.3064288  28.7434807
  19.9010943  15.9444288  23.1144807  19.4580943  16.7254288  22.7834807
  20.4600943  16.2674288  23.8224807  23.0170943  15.5654288  17.9954807
  22.3920943  15.5614288  18.7204807  22.9300943  14.6984288  17.5994807
  21.9390943  16.4894288  24.9734807  22.2360943  17.3954288  24.8934807
  22.4870943  16.0014288  24.3594807  19.6930943  21.0684288  20.8434807
  19.4670943  20.8514288  21.7474807  18.9120943  21.5004288  20.4974807
  26.9220943  21.0744288  19.4424807  26.3230943  21.7984288  19.2584807
  27.4700943  21.0124288  18.6594807  25.5290943  19.7104288  21.4724807
  25.9220943  20.0284288  20.6594807  25.8910943  18.8324288  21.5864807
  14.5650943  16.3004288  23.6954807  14.2770943  16.8714288  24.4074807
  15.3100943  15.8214288  24.0584807  14.7520943  20.2424288  14.9054807
  14.6700943  21.1854288  15.0474807  14.4010943  20.1004288  14.0264807
  26.1140943  22.3014288  25.5674807  25.3820943  22.8104288  25.9164807
  25.7170943  21.4844288  25.2664807  22.5520943  18.9764288  23.9724807
  22.5560943  18.5354288  23.1234807  23.4470943  19.2984288  24.0794807
  18.4020943  18.8594288  22.9324807  18.0620943  19.3364288  23.6884807
  17.6400943  18.4054288  22.5724807  22.6140943  19.9784288  16.9634807
  22.7350943  19.9364288  17.9124807  22.2290943  20.8404288  16.8084807
  26.5770943  17.7544288  24.9794807  26.5940943  18.2054288  25.8244807
  26.3290943  16.8554288  25.1934807  21.6260943  22.2884288  16.3614807
  21.0580943  21.8394288  15.7354807  22.3350943  22.6474288  15.8284807
  22.8530943  23.0364288  25.7194807  23.2200943  22.5624288  26.4654807
  22.6630943  23.9114288  26.0604807  15.7170943  17.7814288  21.8484807
  15.4320943  17.4164288  22.6864807  15.6550943  17.0494288  21.2344807
  20.6430943  22.0774288  28.0374807  20.3390943  22.9574288  28.2624807
  21.5970943  22.1374288  28.0734807  19.1710943  26.2834288  18.6344807
  18.3970943  25.7434288  18.4744807  19.9000943  25.7644288  18.2964807
  25.3910943  16.6744288  18.5704807  24.5770943  16.1754288  18.4944807
  25.1970943  17.5144288  18.1534807  19.2150943  25.9514288  22.2724807
  19.7330943  25.1484288  22.2174807  18.7630943  25.8894288  23.1134807
  24.1020943  27.2184288  17.5454807  24.4430943  27.9624288  17.0494807
  23.2730943  27.5314288  17.9074807  26.9840943  26.5404288  22.9094807
  27.3370943  25.9434288  22.2494807  26.1010943  26.2144288  23.0804807
  23.0710943  27.2994288  20.3164807  23.7580943  27.8464288  20.6974807
  22.2840943  27.8444288  20.3514807  15.2100943  22.9174288  15.8084807
  16.0800943  23.1994288  16.0914807  14.7190943  23.7304288  15.6934807
  22.3740943  24.3044288  19.9294807  22.8300943  25.1154288  20.1554807
  22.0220943  23.9864288  20.7614807  18.2750943  14.6484288  20.4014807
  18.1460943  14.6404288  21.3494807  17.4510943  14.9864288  20.0504807
  17.1950943  24.7344288  17.9364807  16.5870943  25.4744288  17.9464807
  17.6700943  24.8244288  17.1104807  26.7680943  18.8994288  27.6124807
  27.1360943  18.0794288  27.9404807  25.9080943  18.9594288  28.0274807
  22.1030943  20.1334288  19.8364807  21.3940943  20.6024288  20.2784807
  22.3870943  19.4764288  20.4714807  23.7280943  21.5534288  27.8364807
  24.2270943  22.0284288  28.5014807  23.8700943  20.6294288  28.0434807
  26.1340943  16.8594288  21.2764807  26.0110943  16.8774288  20.3274807
  27.0830943  16.9064288  21.3964807  20.3060943  18.4424288  17.2114807
  21.1550943  18.8794288  17.1454807  19.9390943  18.7544288  18.0394807
  19.2050943  24.6954288  15.6854807  19.9720943  24.5834288  16.2474807
  19.2830943  23.9994288  15.0334807  17.9000943  22.1284288  16.3684807
  17.9800943  21.1804288  16.4804807  18.7920943  22.4584288  16.4744807
  22.3290943  26.6714288  15.1584807  22.2240943  26.0564288  15.8854807
  22.1620943  26.1474288  14.3754807  25.5700943  25.7334288  15.7634807
  25.0210943  26.1804288  16.4074807  26.1920943  25.2284288  16.2864807
  21.2370943  24.6924288  17.6594807  21.6590943  24.5264288  18.5024807
  21.3620943  23.8824288  17.1654807  23.7500943  23.7154288  14.9074807
  24.2700943  23.0004288  14.5414807  24.3970943  24.3544288  15.2074807
  22.6530943  16.1954288  27.5794807  22.2050943  16.2174288  26.7334807
  22.0200943  15.7974288  28.1764807  23.0590943  25.0904288  28.2004807
  23.4780943  25.9344288  28.0284807  22.1400943  25.2284288  27.9714807
  27.7340943  23.3764288  28.1604807  27.2080943  23.9004288  27.5574807
  28.0770943  24.0084288  28.7914807  20.1330943  20.7654288  14.6054807
  19.9320943  19.9024288  14.9664807  19.9620943  20.6784288  13.6674807
  27.6120943  15.5764288  17.1344807  27.8920943  14.7334288  17.4904807
  26.8380943  15.8084288  17.6484807  22.1500943  16.8094288  15.5784807
  21.8020943  16.1314288  14.9994807  22.3510943  16.3484288  16.3934807
  17.9540943  27.1694288  15.4264807  18.3920943  27.7124288  16.0824807
  18.4390943  26.3444288  15.4354807  19.7650943  28.2894288  20.5384807
  19.4650943  28.1664288  21.4384807  19.6590943  27.4304288  20.1304807
  15.4900943  23.3374288  21.9754807  14.8350943  23.0694288  21.3314807
  16.3280943  23.2284288  21.5254807  16.5280943  23.7234288  26.5154807
  16.8950943  23.6354288  27.3954807  15.9590943  22.9594288  26.4164807
  14.7040943  20.5474288  17.9174807  13.8010943  20.8104288  17.7434807
  15.1880943  20.8184288  17.1374807  16.5840943  14.9084288  24.7694807
  17.2310943  14.3584288  24.3294807  17.0040943  15.1634288  25.5914807
  16.3370943  15.0644288  27.5124807  15.9880943  15.5204288  28.2784807
  16.0050943  14.1704288  27.5944807  27.2270943  14.4754288  27.0004807
  26.3530943  14.8094288  26.7974807  27.1190943  14.0034288  27.8254807
  24.9750943  15.3924288  25.9394807  24.1920943  15.8674288  26.2194807
  24.6810943  14.4884288  25.8314807  22.8600943  17.8114288  21.4514807
  22.0480943  17.4374288  21.1104807  23.3650943  17.0554288  21.7534807
  27.3630943  14.4754288  22.6894807  27.9660943  15.0474288  23.1644807
  26.6220943  15.0394288  22.4674807  20.8850943  15.9614288  20.0554807
  20.2560943  15.2604288  20.2224807  20.3460943  16.7214288  19.8394807
  26.5180943  22.6744288   3.4324807  26.4380943  21.7594288   3.1614807
  26.1050943  23.1714288   2.7264807  24.6500943  24.4524288   5.3134807
  23.8740943  23.9724288   5.6034807  25.3010943  23.7724288   5.1394807
  18.6670943  24.7644288   6.1914807  17.8350943  24.5094288   6.5904807
  19.2750943  24.8354288   6.9264807  15.0390943  22.3254288   5.8594807
  15.6110943  21.5574288   5.8594807  15.0390943  22.6234288   4.9494807
  24.0910943  27.1284288   5.3204807  24.0220943  26.1874288   5.1594807
  24.8530943  27.2184288   5.8924807  16.2820943  17.7334288   7.6464807
  16.1020943  16.8364288   7.9264807  15.8800943  18.2804288   8.3204807
  25.1210943  19.9354288   5.5474807  25.4980943  19.0624288   5.4344807
  25.0230943  20.2704288   4.6564807  19.2520943  18.3074288   1.0094807
  19.3590943  19.2084288   1.3164807  18.3410943  18.2594288   0.7184807
  16.9000943  20.2294288   6.2544807  17.5810943  20.4934288   6.8734807
  16.5850943  19.3894288   6.5884807  21.0930943  21.2764288   5.3414807
  21.6000943  21.7744288   5.9824807  21.6240943  20.4994288   5.1654807
  19.3760943  15.9164288   9.6084807  19.3780943  16.4334288   8.8024807
  18.5470943  15.4394288   9.5854807  25.7630943  26.0284288   1.1074807
  25.1450943  26.4934288   0.5434807  26.2760943  26.7204288   1.5244807
  20.6270943  25.5554288   7.7854807  20.2940943  26.1824288   8.4274807
  20.8030943  26.0814288   7.0054807  19.0580943  17.6274288   7.6154807
  19.4000943  18.4714288   7.3204807  18.1190943  17.7754288   7.7314807
  19.8380943  27.5234288   9.6004807  20.4560943  28.1984288   9.3184807
  18.9780943  27.9324288   9.5094807  22.7410943  15.1154288   3.9394807
  23.0480943  14.5604288   3.2234807  21.8110943  15.2494288   3.7564807
  27.6910943  25.7354288   7.5584807  28.1080943  25.5214288   6.7234807
  28.4150943  25.9924288   8.1294807  25.1290943  23.1804288   0.6754807
  24.2020943  23.1144288   0.9044807  25.2810943  24.1184288   0.5614807
  28.6010943  20.9204288   8.5954807  28.1880943  21.7464288   8.8494807
  27.8690943  20.3354288   8.4034807  20.7340943  23.7064288   3.4574807
  20.3300943  22.9944288   2.9624807  20.8210943  23.3624288   4.3464807
  21.2030943  27.3934288   5.6214807  20.9050943  26.7884288   4.9424807
  22.1530943  27.4314288   5.5104807  19.4470943  20.4814288   7.2374807
  19.9990943  20.5904288   6.4624807  19.9620943  20.8544288   7.9524807
  20.2940943  27.1314288  12.2724807  19.3970943  27.3554288  12.5194807
  20.3200943  27.2554288  11.3234807  19.1210943  24.0034288  10.8474807
  18.9820943  24.8754288  11.2164807  18.2400943  23.6604288  10.7024807
  17.4350943  22.6014288   0.9584807  17.3150943  23.3274288   0.3464807
  17.1250943  21.8314288   0.4814807  15.0730943  25.7724288   6.7654807
  15.1510943  25.9074288   5.8204807  15.6880943  25.0644288   6.9574807
  16.3180943  27.4724288   3.1754807  15.9110943  27.6144288   2.3214807
  17.2090943  27.1884288   2.9724807  15.1290943  26.8144288   9.3044807
  15.2920943  26.3444288   8.4864807  15.5950943  26.3064288   9.9694807
  19.9010943  15.9444288   4.3404807  19.4580943  16.7254288   4.0094807
  20.4600943  16.2674288   5.0474807  24.1880943  18.8114288   9.9444807
  23.7260943  19.0194288  10.7564807  23.7860943  17.9974288   9.6414807
  26.2840943  21.5324288  13.1734807  26.6090943  20.6994288  12.8334807
  27.0720943  22.0554288  13.3214807  21.9390943  16.4894288   6.1994807
  22.2360943  17.3954288   6.1184807  22.4870943  16.0014288   5.5854807
  19.6930943  21.0684288   2.0684807  19.4670943  20.8514288   2.9734807
  18.9120943  21.5004288   1.7234807  26.9220943  21.0744288   0.6674807
  26.3230943  21.7984288   0.4844807  27.4700943  21.0124288  -0.1145193
  22.1330943  21.9664288  12.7344807  22.0370943  21.0264288  12.5844807
  22.9760943  22.1884288  12.3394807  25.5290943  19.7104288   2.6984807
  25.9220943  20.0284288   1.8844807  25.8910943  18.8324288   2.8124807
  17.2640943  18.3784288  10.8884807  16.8700943  19.2254288  11.0954807
  16.5750943  17.7404288  11.0784807  23.8380943  18.4614288  13.9574807
  23.1480943  18.2684288  14.5924807  24.5810943  18.7454288  14.4904807
  14.5650943  16.3004288   4.9214807  14.2770943  16.8714288   5.6334807
  15.3100943  15.8214288   5.2844807  26.1140943  22.3014288   6.7934807
  25.3820943  22.8104288   7.1424807  25.7170943  21.4844288   6.4924807
  22.5520943  18.9764288   5.1984807  22.5560943  18.5354288   4.3484807
  23.4470943  19.2984288   5.3054807  18.4020943  18.8594288   4.1574807
  18.0620943  19.3364288   4.9144807  17.6400943  18.4054288   3.7974807
  26.5770943  17.7544288   6.2054807  26.5940943  18.2054288   7.0494807
  26.3290943  16.8554288   6.4184807  16.7030943  26.1894288  11.4644807
  16.3190943  25.5484288  12.0624807  17.0140943  26.8924288  12.0334807
  22.8530943  23.0364288   6.9444807  23.2200943  22.5624288   7.6914807
  22.6630943  23.9114288   7.2854807  15.7170943  17.7814288   3.0744807
  15.4320943  17.4164288   3.9124807  15.6550943  17.0494288   2.4604807
  20.6430943  22.0774288   9.2634807  20.3390943  22.9574288   9.4884807
  21.5970943  22.1374288   9.2994807  25.3120943  25.3514288  11.5394807
  25.2450943  24.4304288  11.2854807  24.6820943  25.4484288  12.2544807
  19.2150943  25.9514288   3.4974807  19.7330943  25.1484288   3.4434807
  18.7630943  25.8894288   4.3394807  16.6990943  22.9184288  10.4104807
  16.3410943  23.5834288  10.9974807  16.4050943  22.0864288  10.7814807
  19.9010943  23.3764288  13.2944807  19.6010943  23.5224288  12.3974807
  20.6720943  22.8174288  13.2014807  25.2430943  28.1734288  11.2894807
  25.2580943  27.2414288  11.0714807  24.5360943  28.2594288  11.9284807
  26.9840943  26.5404288   4.1354807  27.3370943  25.9434288   3.4754807
  26.1010943  26.2144288   4.3064807  23.0710943  27.2994288   1.5424807
  23.7580943  27.8464288   1.9234807  22.2840943  27.8444288   1.5774807
  22.3740943  24.3044288   1.1544807  22.8300943  25.1154288   1.3804807
  22.0220943  23.9864288   1.9864807  18.2750943  14.6484288   1.6274807
  18.1460943  14.6404288   2.5754807  17.4510943  14.9864288   1.2764807
  15.2740943  16.4074288  11.0874807  14.5600943  16.6074288  11.6934807
  15.6940943  15.6314288  11.4594807  26.7680943  18.8994288   8.8374807
  27.1360943  18.0794288   9.1654807  25.9080943  18.9594288   9.2534807
  22.1030943  20.1334288   1.0624807  21.3940943  20.6024288   1.5034807
  22.3870943  19.4764288   1.6964807  23.7280943  21.5534288   9.0614807
  24.2270943  22.0284288   9.7264807  23.8700943  20.6294288   9.2684807
  26.1340943  16.8594288   2.5024807  26.0110943  16.8774288   1.5524807
  27.0830943  16.9064288   2.6214807  26.5440943  27.5704288  13.8334807
  25.9370943  27.5934288  13.0934807  26.2390943  26.8384288  14.3704807
  15.4270943  23.9494288  12.8294807  15.9310943  23.3704288  13.4014807
  14.6880943  24.2334288  13.3674807  22.4810943  25.3564288  12.3634807
  21.7150943  25.9254288  12.2784807  22.6620943  25.0644288  11.4704807
  17.4590943  22.0924288  13.7244807  17.5000943  21.7944288  14.6334807
  18.3140943  22.4934288  13.5654807  19.4000943  20.6714288  11.6924807
  18.8690943  20.1804288  11.0644807  20.0690943  21.1004288  11.1584807
  28.2980943  25.1384288  11.4564807  28.7120943  25.2934288  12.3054807
  27.3630943  25.2644288  11.6194807  19.8870943  17.6384288  11.7724807
  19.7930943  17.0204288  11.0474807  19.3070943  18.3644288  11.5454807
  22.6530943  16.1954288   8.8044807  22.2050943  16.2174288   7.9594807
  22.0200943  15.7974288   9.4014807  23.0590943  25.0904288   9.4264807
  23.4780943  25.9344288   9.2534807  22.1400943  25.2284288   9.1964807
  25.3960943  22.8224288  10.8094807  25.5150943  22.2264288  11.5494807
  26.2550943  22.8594288  10.3904807  27.7340943  23.3764288   9.3864807
  27.2080943  23.9004288   8.7824807  28.0770943  24.0084288  10.0174807
  22.1620943  19.3644288  12.0674807  22.7520943  19.0564288  12.7554807
  21.3440943  18.8924288  12.2234807  26.9820943  18.9814288  12.3004807
  26.2930943  18.3194288  12.2354807  27.7020943  18.5354288  12.7454807
  19.7650943  28.2894288   1.7644807  19.4650943  28.1664288   2.6644807
  19.6590943  27.4304288   1.3554807  15.4900943  23.3374288   3.2004807
  14.8350943  23.0694288   2.5564807  16.3280943  23.2284288   2.7514807
  16.5280943  23.7234288   7.7414807  16.8950943  23.6354288   8.6204807
  15.9590943  22.9594288   7.6414807  16.0800943  20.6344288  11.6474807
  15.1850943  20.6004288  11.9864807  16.6190943  20.8324288  12.4124807
  16.5840943  14.9084288   5.9954807  17.2310943  14.3584288   5.5544807
  17.0040943  15.1634288   6.8174807  16.3370943  15.0644288   8.7384807
  15.9880943  15.5204288   9.5034807  16.0050943  14.1704288   8.8204807
  23.8490943  16.2554288  12.2594807  23.7880943  16.8474288  13.0094807
  24.7890943  16.1484288  12.1144807  26.4870943  15.9124288  11.8994807
  27.1010943  16.2304288  11.2374807  27.0320943  15.4274288  12.5184807
  27.2270943  14.4754288   8.2264807  26.3530943  14.8094288   8.0234807
  27.1190943  14.0034288   9.0514807  24.9750943  15.3924288   7.1654807
  24.1920943  15.8674288   7.4454807  24.6810943  14.4884288   7.0564807
  22.8600943  17.8114288   2.6774807  22.0480943  17.4374288   2.3364807
  23.3650943  17.0554288   2.9794807  27.3630943  14.4754288   3.9154807
  27.9660943  15.0474288   4.3904807  26.6220943  15.0394288   3.6924807
  20.8850943  15.9614288   1.2814807  20.2560943  15.2604288   1.4484807
  20.3460943  16.7214288   1.0644807  21.0110943  15.2394288  13.7164807
  20.7290943  15.7434288  12.9524807  21.3930943  14.4424288  13.3504807
  27.6120943  14.6554288  14.2944807  27.4990943  14.9744288  15.1894807
  28.4290943  15.0564288  13.9984807  26.5180943   3.9004288  22.2064807
  26.4380943   2.9854288  21.9364807  26.1050943   4.3964288  21.5004807
  24.6500943   5.6784288  24.0874807  23.8740943   5.1984288  24.3774807
  25.3010943   4.9984288  23.9134807  18.6670943   5.9904288  24.9654807
  17.8350943   5.7344288  25.3654807  19.2750943   6.0614288  25.7014807
  18.6470943  10.0244288  25.1614807  18.9490943   9.1334288  24.9824807
  19.3910943  10.5814288  24.9334807  17.0760943   0.9504288  18.7494807
  16.1870943   1.2914288  18.6474807  17.3600943   0.7504288  17.8574807
  15.0390943   3.5504288  24.6334807  15.6110943   2.7824288  24.6344807
  15.0390943   3.8494288  23.7244807  24.8970943  12.3694288  22.4884807
  24.2780943  12.8254288  21.9174807  25.7520943  12.5244288  22.0874807
  24.0910943   8.3534288  24.0944807  24.0220943   7.4124288  23.9334807
  24.8530943   8.4434288  24.6674807  25.1210943   1.1604288  24.3214807
  25.4980943   0.2874288  24.2094807  25.0230943   1.4964288  23.4304807
  16.9000943   1.4554288  25.0284807  17.5810943   1.7194288  25.6474807
  16.5850943   0.6154288  25.3624807  21.0930943   2.5014288  24.1164807
  21.6000943   3.0004288  24.7564807  21.6240943   1.7254288  23.9404807
  25.7630943   7.2534288  19.8814807  25.1450943   7.7184288  19.3174807
  26.2760943   7.9464288  20.2984807  20.6270943   6.7814288  26.5594807
  20.2940943   7.4084288  27.2014807  20.8030943   7.3074288  25.7794807
  19.8380943   8.7494288  28.3744807  20.4560943   9.4244288  28.0934807
  18.9780943   9.1584288  28.2834807  15.1320943   7.9394288  17.2554807
  14.7550943   8.4284288  16.5234807  15.3890943   8.6114288  17.8864807
  28.2920943  12.0574288  25.0044807  28.3050943  11.6544288  24.1364807
  27.7400943  12.8324288  24.9004807  27.6910943   6.9604288  26.3324807
  28.1080943   6.7464288  25.4984807  28.4150943   7.2184288  26.9034807
  25.1290943   4.4054288  19.4494807  24.2020943   4.3394288  19.6784807
  25.2810943   5.3434288  19.3354807  25.1160943   0.6774288  16.4464807
  24.1760943   0.8394288  16.5314807  25.4340943   1.3964288  15.9004807
  28.6010943   2.1464288  27.3704807  28.1880943   2.9714288  27.6244807
  27.8690943   1.5604288  27.1774807  20.7340943   4.9324288  22.2314807
  20.3300943   4.2204288  21.7364807  20.8210943   4.5874288  23.1204807
  21.2030943   8.6194288  24.3954807  20.9050943   8.0134288  23.7164807
  22.1530943   8.6564288  24.2844807  19.4470943   1.7064288  26.0114807
  19.9990943   1.8164288  25.2374807  19.9620943   2.0804288  26.7274807
  27.3350943   5.2064288  16.9604807  27.7740943   4.3684288  16.8144807
  28.0480943   5.8394288  17.0474807  25.4440943  10.1464288  20.9284807
  25.8840943  10.8884288  20.5144807  25.3830943  10.3884288  21.8524807
  17.4350943   3.8264288  19.7324807  17.3150943   4.5534288  19.1204807
  17.1250943   3.0574288  19.2554807  15.0730943   6.9984288  25.5394807
  15.1510943   7.1334288  24.5954807  15.6880943   6.2904288  25.7324807
  16.3180943   8.6984288  21.9504807  15.9110943   8.8394288  21.0954807
  17.2090943   8.4144288  21.7474807  28.1110943  13.1334288  18.2854807
  27.9520943  12.8434288  19.1834807  27.9460943  12.3574288  17.7494807
  20.5900943  12.9134288  20.0624807  20.4150943  11.9964288  19.8494807
  19.7360943  13.2714288  20.3024807  27.8140943  10.6414288  16.8444807
  27.1210943  10.6394288  16.1854807  28.5560943  10.2174288  16.4144807
  27.3790943  12.2684288  20.9194807  27.8350943  11.4874288  21.2334807
  27.7180943  12.9784288  21.4634807  15.1290943   8.0394288  28.0784807
  15.2920943   7.5704288  27.2604807  15.5950943   7.5324288  28.7434807
  19.6930943   2.2934288  20.8434807  19.4670943   2.0774288  21.7474807
  18.9120943   2.7264288  20.4974807  26.9220943   2.3004288  19.4424807
  26.3230943   3.0234288  19.2584807  27.4700943   2.2374288  18.6594807
  25.5290943   0.9364288  21.4724807  25.9220943   1.2534288  20.6594807
  25.8910943   0.0574288  21.5864807  14.7520943   1.4684288  14.9054807
  14.6700943   2.4114288  15.0474807  14.4010943   1.3264288  14.0264807
  26.1140943   3.5274288  25.5674807  25.3820943   4.0354288  25.9164807
  25.7170943   2.7104288  25.2664807  22.6140943   1.2034288  16.9634807
  22.7350943   1.1624288  17.9124807  22.2290943   2.0664288  16.8084807
  21.6260943   3.5134288  16.3614807  21.0580943   3.0654288  15.7354807
  22.3350943   3.8734288  15.8284807  22.8530943   4.2624288  25.7194807
  23.2200943   3.7884288  26.4654807  22.6630943   5.1364288  26.0604807
  20.6430943   3.3034288  28.0374807  20.3390943   4.1824288  28.2624807
  21.5970943   3.3634288  28.0734807  19.1710943   7.5094288  18.6344807
  18.3970943   6.9694288  18.4744807  19.9000943   6.9904288  18.2964807
  19.2150943   7.1774288  22.2724807  19.7330943   6.3744288  22.2174807
  18.7630943   7.1154288  23.1134807  24.1020943   8.4444288  17.5454807
  24.4430943   9.1884288  17.0494807  23.2730943   8.7574288  17.9074807
  26.9840943   7.7654288  22.9094807  27.3370943   7.1684288  22.2494807
  26.1010943   7.4404288  23.0804807  23.0710943   8.5254288  20.3164807
  23.7580943   9.0724288  20.6974807  22.2840943   9.0694288  20.3514807
  15.2100943   4.1424288  15.8084807  16.0800943   4.4254288  16.0914807
  14.7190943   4.9564288  15.6934807  22.3740943   5.5304288  19.9294807
  22.8300943   6.3404288  20.1554807  22.0220943   5.2124288  20.7614807
  24.6770943  11.0404288  27.1584807  25.3210943  11.2464288  27.8354807
  25.0400943  10.2794288  26.7054807  25.9500943   9.0444288  25.8764807
  26.5920943   8.3434288  25.9894807  26.4750943   9.8234288  25.6954807
  21.5940943  10.7384288  17.1914807  21.5850943  11.4714288  16.5764807
  20.6740943  10.4914288  17.2844807  17.1950943   5.9604288  17.9364807
  16.5870943   6.7004288  17.9464807  17.6700943   6.0504288  17.1104807
  24.5800943  10.8014288  15.8544807  24.6810943  10.5974288  14.9244807
  23.6800943  10.5474288  16.0594807  22.1030943   1.3594288  19.8364807
  21.3940943   1.8284288  20.2784807  22.3870943   0.7014288  20.4714807
  23.7280943   2.7794288  27.8364807  24.2270943   3.2534288  28.5014807
  23.8700943   1.8554288  28.0434807  23.2220943  13.3204288  20.5494807
  23.4760943  13.2824288  19.6274807  22.2730943  13.1934288  20.5414807
  19.2050943   5.9214288  15.6854807  19.9720943   5.8094288  16.2474807
  19.2830943   5.2254288  15.0334807  17.9000943   3.3534288  16.3684807
  17.9800943   2.4064288  16.4804807  18.7920943   3.6844288  16.4744807
  18.7010943  13.5034288  23.4724807  19.4380943  12.9544288  23.7434807
  19.0850943  14.3694288  23.3324807  15.5860943   9.5704288  19.3464807
  14.6600943   9.8124288  19.3364807  16.0520943  10.3984288  19.2244807
  21.8120943  12.6764288  15.2944807  22.6040943  12.9654288  14.8424807
  21.2920943  12.2454288  14.6154807  22.3290943   7.8964288  15.1584807
  22.2240943   7.2824288  15.8854807  22.1620943   7.3734288  14.3754807
  25.5700943   6.9584288  15.7634807  25.0210943   7.4054288  16.4074807
  26.1920943   6.4534288  16.2864807  21.2370943   5.9174288  17.6594807
  21.6590943   5.7514288  18.5024807  21.3620943   5.1074288  17.1654807
  23.7500943   4.9414288  14.9074807  24.2700943   4.2264288  14.5414807
  24.3970943   5.5804288  15.2074807  23.0590943   6.3164288  28.2004807
  23.4780943   7.1594288  28.0284807  22.1400943   6.4534288  27.9714807
  27.7340943   4.6014288  28.1604807  27.2080943   5.1264288  27.5574807
  28.0770943   5.2344288  28.7914807  20.1330943   1.9914288  14.6054807
  19.9320943   1.1274288  14.9664807  19.9620943   1.9044288  13.6674807
  24.3150943  13.0224288  17.1974807  25.2100943  13.3614288  17.2194807
  24.3460943  12.3004288  16.5694807  17.9540943   8.3954288  15.4264807
  18.3920943   8.9384288  16.0824807  18.4390943   7.5704288  15.4354807
  15.1690943  11.1844288  22.8784807  15.4990943  10.3164288  22.6464807
  15.5980943  11.3904288  23.7084807  19.7650943   9.5154288  20.5384807
  19.4650943   9.3914288  21.4384807  19.6590943   8.6564288  20.1304807
  15.6580943  12.0514288  25.6164807  15.2210943  12.2314288  26.4484807
  16.2260943  12.8084288  25.4744807  15.4900943   4.5634288  21.9754807
  14.8350943   4.2944288  21.3314807  16.3280943   4.4534288  21.5254807
  16.5280943   4.9484288  26.5154807  16.8950943   4.8614288  27.3954807
  15.9590943   4.1854288  26.4164807  14.7040943   1.7734288  17.9174807
  13.8010943   2.0364288  17.7434807  15.1880943   2.0444288  17.1374807
  17.2470943   0.8294288  15.8274807  17.9560943   0.4084288  15.3424807
  16.5310943   0.8974288  15.1954807  21.6440943  11.0174288  27.2784807
  21.4030943  11.2854288  26.3914807  22.5840943  11.1884288  27.3334807
  17.4130943   9.7744288  27.7484807  16.6870943   9.1544288  27.6804807
  17.4740943  10.1684288  26.8784807  21.0180943  11.9884288  24.5334807
  21.5340943  11.3774288  24.0084807  21.6670943  12.4914288  25.0244807
  23.7570943  12.8794288  25.3604807  24.0450943  12.6244288  24.4834807
  24.2700943  12.3274288  25.9504807  15.6960943  13.0914288  20.9574807
  15.5280943  12.4584288  21.6564807  14.8300943  13.2974288  20.6074807
  19.9020943  13.7334288  17.2774807  20.6340943  13.4494288  16.7304807
  20.1610943  13.4944288  18.1674807  19.0630943   9.8494288  17.2824807
  18.4340943  10.3184288  17.8314807  19.1780943   9.0044288  17.7174807
  26.5180943   3.9004288   3.4324807  26.4380943   2.9854288   3.1614807
  26.1050943   4.3964288   2.7264807  24.6500943   5.6784288   5.3134807
  23.8740943   5.1984288   5.6034807  25.3010943   4.9984288   5.1394807
  18.6670943   5.9904288   6.1914807  17.8350943   5.7344288   6.5904807
  19.2750943   6.0614288   6.9264807  18.6470943  10.0244288   6.3864807
  18.9490943   9.1334288   6.2074807  19.3910943  10.5814288   6.1594807
  15.0390943   3.5504288   5.8594807  15.6110943   2.7824288   5.8594807
  15.0390943   3.8494288   4.9494807  24.8970943  12.3694288   3.7134807
  24.2780943  12.8254288   3.1434807  25.7520943  12.5244288   3.3124807
  24.0910943   8.3534288   5.3204807  24.0220943   7.4124288   5.1594807
  24.8530943   8.4434288   5.8924807  25.1210943   1.1604288   5.5474807
  25.4980943   0.2874288   5.4344807  25.0230943   1.4964288   4.6564807
  16.9000943   1.4554288   6.2544807  17.5810943   1.7194288   6.8734807
  16.5850943   0.6154288   6.5884807  21.0930943   2.5014288   5.3414807
  21.6000943   3.0004288   5.9824807  21.6240943   1.7254288   5.1654807
  25.7630943   7.2534288   1.1074807  25.1450943   7.7184288   0.5434807
  26.2760943   7.9464288   1.5244807  20.6270943   6.7814288   7.7854807
  20.2940943   7.4084288   8.4274807  20.8030943   7.3074288   7.0054807
  19.8380943   8.7494288   9.6004807  20.4560943   9.4244288   9.3184807
  18.9780943   9.1584288   9.5094807  28.2920943  12.0574288   6.2304807
  28.3050943  11.6544288   5.3624807  27.7400943  12.8324288   6.1264807
  27.6910943   6.9604288   7.5584807  28.1080943   6.7464288   6.7234807
  28.4150943   7.2184288   8.1294807  25.1290943   4.4054288   0.6754807
  24.2020943   4.3394288   0.9044807  25.2810943   5.3434288   0.5614807
  28.6010943   2.1464288   8.5954807  28.1880943   2.9714288   8.8494807
  27.8690943   1.5604288   8.4034807  20.7340943   4.9324288   3.4574807
  20.3300943   4.2204288   2.9624807  20.8210943   4.5874288   4.3464807
  21.2030943   8.6194288   5.6214807  20.9050943   8.0134288   4.9424807
  22.1530943   8.6564288   5.5104807  19.4470943   1.7064288   7.2374807
  19.9990943   1.8164288   6.4624807  19.9620943   2.0804288   7.9524807
  20.2940943   8.3574288  12.2724807  19.3970943   8.5814288  12.5194807
  20.3200943   8.4804288  11.3234807  19.1210943   5.2284288  10.8474807
  18.9820943   6.1004288  11.2164807  18.2400943   4.8854288  10.7024807
  25.4440943  10.1464288   2.1544807  25.8840943  10.8884288   1.7404807
  25.3830943  10.3884288   3.0784807  20.9200943  11.1704288  13.0564807
  20.8910943  11.5754288  12.1894807  20.7560943  10.2414288  12.8934807
  17.4350943   3.8264288   0.9584807  17.3150943   4.5534288   0.3464807
  17.1250943   3.0574288   0.4814807  15.0730943   6.9984288   6.7654807
  15.1510943   7.1334288   5.8204807  15.6880943   6.2904288   6.9574807
  16.3180943   8.6984288   3.1754807  15.9110943   8.8394288   2.3214807
  17.2090943   8.4144288   2.9724807  26.1360943  12.8474288  10.0824807
  26.6500943  12.7584288  10.8844807  25.2930943  13.1934288  10.3754807
  20.5900943  12.9134288   1.2874807  20.4150943  11.9964288   1.0744807
  19.7360943  13.2714288   1.5274807  27.3790943  12.2684288   2.1454807
  27.8350943  11.4874288   2.4594807  27.7180943  12.9784288   2.6894807
  15.1290943   8.0394288   9.3044807  15.2920943   7.5704288   8.4864807
  15.5950943   7.5324288   9.9694807  26.2840943   2.7584288  13.1734807
  26.6090943   1.9244288  12.8334807  27.0720943   3.2814288  13.3214807
  19.6930943   2.2934288   2.0684807  19.4670943   2.0774288   2.9734807
  18.9120943   2.7264288   1.7234807  26.9220943   2.3004288   0.6674807
  26.3230943   3.0234288   0.4844807  27.4700943   2.2374288  -0.1145193
  22.1330943   3.1924288  12.7344807  22.0370943   2.2514288  12.5844807
  22.9760943   3.4134288  12.3394807  25.5290943   0.9364288   2.6984807
  25.9220943   1.2534288   1.8844807  25.8910943   0.0574288   2.8124807
  26.1140943   3.5274288   6.7934807  25.3820943   4.0354288   7.1424807
  25.7170943   2.7104288   6.4924807  16.7030943   7.4144288  11.4644807
  16.3190943   6.7744288  12.0624807  17.0140943   8.1184288  12.0334807
  22.8530943   4.2624288   6.9444807  23.2200943   3.7884288   7.6914807
  22.6630943   5.1364288   7.2854807  20.6430943   3.3034288   9.2634807
  20.3390943   4.1824288   9.4884807  21.5970943   3.3634288   9.2994807
  25.3120943   6.5774288  11.5394807  25.2450943   5.6564288  11.2854807
  24.6820943   6.6744288  12.2544807  19.2150943   7.1774288   3.4974807
  19.7330943   6.3744288   3.4434807  18.7630943   7.1154288   4.3394807
  16.6990943   4.1434288  10.4104807  16.3410943   4.8094288  10.9974807
  16.4050943   3.3124288  10.7814807  19.9010943   4.6024288  13.2944807
  19.6010943   4.7474288  12.3974807  20.6720943   4.0424288  13.2014807
  25.2430943   9.3994288  11.2894807  25.2580943   8.4674288  11.0714807
  24.5360943   9.4854288  11.9284807  26.9840943   7.7654288   4.1354807
  27.3370943   7.1684288   3.4754807  26.1010943   7.4404288   4.3064807
  23.0710943   8.5254288   1.5424807  23.7580943   9.0724288   1.9234807
  22.2840943   9.0694288   1.5774807  22.3740943   5.5304288   1.1544807
  22.8300943   6.3404288   1.3804807  22.0220943   5.2124288   1.9864807
  24.6770943  11.0404288   8.3844807  25.3210943  11.2464288   9.0614807
  25.0400943  10.2794288   7.9314807  25.9500943   9.0444288   7.1014807
  26.5920943   8.3434288   7.2154807  26.4750943   9.8234288   6.9214807
  27.7240943   9.8434288  10.3054807  28.0590943  10.4304288  10.9834807
  26.8040943   9.7124288  10.5354807  23.5530943   9.8924288  13.4744807
  23.2320943   9.1734288  14.0184807  22.8780943  10.5684288  13.5474807
  22.1030943   1.3594288   1.0624807  21.3940943   1.8284288   1.5034807
  22.3870943   0.7014288   1.6964807  23.7280943   2.7794288   9.0614807
  24.2270943   3.2534288   9.7264807  23.8700943   1.8554288   9.2684807
  23.2220943  13.3204288   1.7744807  23.4760943  13.2824288   0.8524807
  22.2730943  13.1934288   1.7674807  18.7010943  13.5034288   4.6974807
  19.4380943  12.9544288   4.9684807  19.0850943  14.3694288   4.5584807
  15.5860943   9.5704288   0.5714807  14.6600943   9.8124288   0.5624807
  16.0520943  10.3984288   0.4504807  26.5440943   8.7964288  13.8334807
  25.9370943   8.8194288  13.0934807  26.2390943   8.0644288  14.3704807
  15.4270943   5.1754288  12.8294807  15.9310943   4.5964288  13.4014807
  14.6880943   5.4594288  13.3674807  22.4810943   6.5824288  12.3634807
  21.7150943   7.1504288  12.2784807  22.6620943   6.2904288  11.4704807
  17.4590943   3.3184288  13.7244807  17.5000943   3.0194288  14.6334807
  18.3140943   3.7194288  13.5654807  19.4000943   1.8974288  11.6924807
  18.8690943   1.4064288  11.0644807  20.0690943   2.3254288  11.1584807
  28.2980943   6.3644288  11.4564807  28.7120943   6.5184288  12.3054807
  27.3630943   6.4904288  11.6194807  23.0590943   6.3164288   9.4264807
  23.4780943   7.1594288   9.2534807  22.1400943   6.4534288   9.1964807
  25.3960943   4.0484288  10.8094807  25.5150943   3.4524288  11.5494807
  26.2550943   4.0854288  10.3904807  27.7340943   4.6014288   9.3864807
  27.2080943   5.1264288   8.7824807  28.0770943   5.2344288  10.0174807
  20.9100943  12.6214288  10.5414807  20.3720943  13.3464288  10.2224807
  21.1630943  12.1444288   9.7514807  22.1620943   0.5904288  12.0674807
  22.7520943   0.2814288  12.7554807  21.3440943   0.1184288  12.2234807
  23.7660943  13.8564288  10.8004807  23.6920943  14.7604288  11.1074807
  22.8640943  13.5384288  10.7724807  15.1690943  11.1844288   4.1034807
  15.4990943  10.3164288   3.8714807  15.5980943  11.3904288   4.9344807
  19.7650943   9.5154288   1.7644807  19.4650943   9.3914288   2.6644807
  19.6590943   8.6564288   1.3554807  15.6580943  12.0514288   6.8424807
  15.2210943  12.2314288   7.6744807  16.2260943  12.8084288   6.7004807
  15.4900943   4.5634288   3.2004807  14.8350943   4.2944288   2.5564807
  16.3280943   4.4534288   2.7514807  16.5280943   4.9484288   7.7414807
  16.8950943   4.8614288   8.6204807  15.9590943   4.1854288   7.6414807
  16.0800943   1.8594288  11.6474807  15.1850943   1.8264288  11.9864807
  16.6190943   2.0584288  12.4124807  17.9430943   9.4624288  12.9034807
  17.9000943   9.0914288  13.7844807  18.0740943  10.3994288  13.0434807
  21.6440943  11.0174288   8.5044807  21.4030943  11.2854288   7.6174807
  22.5840943  11.1884288   8.5594807  17.7820943  12.4084288  10.0234807
  17.1880943  12.2764288  10.7624807  17.7740943  11.5724288   9.5574807
  17.4130943   9.7744288   8.9734807  16.6870943   9.1544288   8.9064807
  17.4740943  10.1684288   8.1034807  21.0180943  11.9884288   5.7584807
  21.5340943  11.3774288   5.2334807  21.6670943  12.4914288   6.2494807
  23.7570943  12.8794288   6.5854807  24.0450943  12.6244288   5.7094807
  24.2700943  12.3274288   7.1764807  15.6960943  13.0914288   2.1834807
  15.5280943  12.4584288   2.8814807  14.8300943  13.2974288   1.8334807
  23.8240943  13.8014288  13.9524807  24.7510943  13.5654288  13.9964807
  23.8100943  14.6284288  13.4714807   7.7440943  22.6744288  22.2064807
   7.6630943  21.7594288  21.9364807   7.3300943  23.1714288  21.5004807
   5.8760943  24.4524288  24.0874807   5.1000943  23.9724288  24.3774807
   6.5270943  23.7724288  23.9134807   5.3170943  27.1284288  24.0944807
   5.2470943  26.1874288  23.9334807   6.0790943  27.2184288  24.6674807
   6.3470943  19.9354288  24.3214807   6.7240943  19.0624288  24.2094807
   6.2490943  20.2704288  23.4304807  10.1290943  17.4304288  21.2544807
  10.9500943  16.9394288  21.2974807  10.1630943  18.0194288  22.0074807
   2.3180943  21.2764288  24.1164807   2.8260943  21.7744288  24.7564807
   2.8500943  20.4994288  23.9404807  14.4190943  19.4464288  27.8194807
  13.7150943  19.8354288  27.3004807  14.6850943  20.1414288  28.4214807
   6.9890943  26.0284288  19.8814807   6.3710943  26.4934288  19.3174807
   7.5010943  26.7204288  20.2984807   1.8520943  25.5554288  26.5594807
   1.5190943  26.1824288  27.2014807   2.0290943  26.0814288  25.7794807
  10.3660943  19.3704288  24.0274807   9.6610943  19.6584288  24.6074807
  10.7270943  20.1804288  23.6674807   1.0640943  27.5234288  28.3744807
   1.6820943  28.1984288  28.0934807   0.2030943  27.9324288  28.2834807
  13.4340943  18.8154288  24.4184807  12.4870943  18.8494288  24.5494807
  13.7590943  19.6294288  24.8034807   3.9660943  15.1154288  22.7134807
   4.2740943  14.5604288  21.9974807   3.0360943  15.2494288  22.5314807
  10.8120943  27.5534288  20.0934807  10.7020943  26.6114288  20.2184807
  10.8090943  27.9154288  20.9794807   8.9160943  25.7354288  26.3324807
   9.3330943  25.5214288  25.4984807   9.6400943  25.9924288  26.9034807
   6.3540943  23.1804288  19.4494807   5.4270943  23.1144288  19.6784807
   6.5070943  24.1184288  19.3354807   6.3410943  19.4514288  16.4464807
   5.4020943  19.6134288  16.5314807   6.6600943  20.1704288  15.9004807
  12.8630943  24.1334288  26.4244807  12.0340943  24.2034288  25.9494807
  13.4580943  24.7194288  25.9564807  10.3840943  24.7424288  19.9534807
   9.7650943  24.4044288  19.3064807  10.3670943  24.0984288  20.6614807
   9.8270943  20.9204288  27.3704807   9.4140943  21.7464288  27.6244807
   9.0940943  20.3354288  27.1774807   1.9600943  23.7064288  22.2314807
   1.5560943  22.9944288  21.7364807   2.0460943  23.3624288  23.1204807
   2.4280943  27.3934288  24.3954807   2.1310943  26.7884288  23.7164807
   3.3780943  27.4314288  24.2844807   0.6730943  20.4814288  26.0114807
   1.2240943  20.5904288  25.2374807   1.1870943  20.8544288  26.7274807
   8.5610943  23.9814288  16.9604807   9.0000943  23.1434288  16.8144807
   9.2730943  24.6134288  17.0474807   1.1270943  15.9444288  23.1144807
   0.6840943  16.7254288  22.7834807   1.6850943  16.2674288  23.8224807
   4.2430943  15.5654288  17.9954807   3.6180943  15.5614288  18.7204807
   4.1560943  14.6984288  17.5994807   3.1640943  16.4894288  24.9734807
   3.4620943  17.3954288  24.8934807   3.7130943  16.0014288  24.3594807
   0.9180943  21.0684288  20.8434807   0.6920943  20.8514288  21.7474807
   0.1380943  21.5004288  20.4974807   8.1480943  21.0744288  19.4424807
   7.5490943  21.7984288  19.2584807   8.6960943  21.0124288  18.6594807
   6.7550943  19.7104288  21.4724807   7.1470943  20.0284288  20.6594807
   7.1160943  18.8324288  21.5864807   7.3400943  22.3014288  25.5674807
   6.6080943  22.8104288  25.9164807   6.9420943  21.4844288  25.2664807
   3.7780943  18.9764288  23.9724807   3.7810943  18.5354288  23.1234807
   4.6730943  19.2984288  24.0794807   3.8400943  19.9784288  16.9634807
   3.9610943  19.9364288  17.9124807   3.4550943  20.8404288  16.8084807
   7.8030943  17.7544288  24.9794807   7.8200943  18.2054288  25.8244807
   7.5540943  16.8554288  25.1934807   2.8520943  22.2884288  16.3614807
   2.2840943  21.8394288  15.7354807   3.5610943  22.6474288  15.8284807
   4.0790943  23.0364288  25.7194807   4.4460943  22.5624288  26.4654807
   3.8890943  23.9114288  26.0604807   1.8680943  22.0774288  28.0374807
   1.5640943  22.9574288  28.2624807   2.8230943  22.1374288  28.0734807
  11.1550943  25.2804288  24.4274807  11.8750943  25.7764288  24.0364807
  10.9540943  24.6024288  23.7824807   6.6160943  16.6744288  18.5704807
   5.8030943  16.1754288  18.4944807   6.4230943  17.5144288  18.1534807
   9.3310943  21.0464288  16.8664807  10.2190943  21.3574288  16.6914807
   9.3020943  20.1734288  16.4744807   5.3270943  27.2184288  17.5454807
   5.6690943  27.9624288  17.0494807   4.4990943  27.5314288  17.9074807
  11.6030943  22.3574288  16.3344807  11.5190943  22.7884288  15.4834807
  12.3220943  22.8174288  16.7664807   8.2100943  26.5404288  22.9094807
   8.5620943  25.9434288  22.2494807   7.3260943  26.2144288  23.0804807
   4.2960943  27.2994288  20.3164807   4.9840943  27.8464288  20.6974807
   3.5100943  27.8444288  20.3514807   3.5990943  24.3044288  19.9294807
   4.0550943  25.1154288  20.1554807   3.2480943  23.9864288  20.7614807
  11.0210943  28.1034288  15.6004807  10.7950943  27.3864288  16.1924807
  10.6310943  27.8544288  14.7624807  10.6030943  26.0204288  17.2614807
  10.3150943  26.4814288  18.0494807  11.3980943  25.5604288  17.5294807
   7.9940943  18.8994288  27.6124807   8.3620943  18.0794288  27.9404807
   7.1330943  18.9594288  28.0274807  11.3600943  17.8554288  18.4204807
  10.7310943  17.9594288  17.7064807  10.8650943  18.0754288  19.2104807
   3.3280943  20.1334288  19.8364807   2.6200943  20.6024288  20.2784807
   3.6130943  19.4764288  20.4714807   4.9540943  21.5534288  27.8364807
   5.4520943  22.0284288  28.5014807   5.0960943  20.6294288  28.0434807
   7.3600943  16.8594288  21.2764807   7.2370943  16.8774288  20.3274807
   8.3080943  16.9064288  21.3964807   1.5320943  18.4424288  17.2114807
   2.3810943  18.8794288  17.1454807   1.1650943  18.7544288  18.0394807
  10.4530943  23.0134288  22.1254807   9.5120943  23.0284288  22.2994807
  10.7670943  22.2274288  22.5714807   0.4310943  24.6954288  15.6854807
   1.1970943  24.5834288  16.2474807   0.5080943  23.9994288  15.0334807
   3.5550943  26.6714288  15.1584807   3.4500943  26.0564288  15.8854807
   3.3870943  26.1474288  14.3754807   6.7950943  25.7334288  15.7634807
   6.2460943  26.1804288  16.4074807   7.4170943  25.2284288  16.2864807
   2.4630943  24.6924288  17.6594807   2.8840943  24.5264288  18.5024807
   2.5880943  23.8824288  17.1654807   4.9760943  23.7154288  14.9074807
   5.4960943  23.0004288  14.5414807   5.6220943  24.3544288  15.2074807
   3.8790943  16.1954288  27.5794807   3.4310943  16.2174288  26.7334807
   3.2450943  15.7974288  28.1764807   4.2850943  25.0904288  28.2004807
   4.7040943  25.9344288  28.0284807   3.3660943  25.2284288  27.9714807
   8.9600943  23.3764288  28.1604807   8.4340943  23.9004288  27.5574807
   9.3030943  24.0084288  28.7914807   1.3590943  20.7654288  14.6054807
   1.1580943  19.9024288  14.9664807   1.1880943  20.6784288  13.6674807
   8.8370943  15.5764288  17.1344807   9.1180943  14.7334288  17.4904807
   8.0640943  15.8084288  17.6484807   0.1570943  17.8654288  14.5934807
   0.4600943  17.8724288  13.6854807   0.8960943  17.5154288  15.0904807
   3.3750943  16.8094288  15.5784807   3.0280943  16.1314288  14.9994807
   3.5770943  16.3484288  16.3934807   0.9910943  28.2894288  20.5384807
   0.6900943  28.1664288  21.4384807   0.8840943  27.4304288  20.1304807
  13.2160943  24.8144288  17.7444807  13.9770943  25.3834288  17.8504807
  13.2310943  24.2464288  18.5154807  14.2220943  25.6694288  22.5884807
  14.5920943  24.8854288  22.1824807  14.8620943  26.3574288  22.4104807
  11.2050943  27.0524288  28.0014807  10.3910943  27.4824288  28.2644807
  11.6120943  27.6644288  27.3884807  13.2670943  25.1074288  14.9014807
  13.5420943  26.0154288  14.7734807  13.0790943  25.0434288  15.8384807
   9.6650943  18.1314288  16.1974807  10.0840943  17.9454288  15.3564807
   9.3590943  17.2794288  16.5074807  13.1640943  23.0444288  19.8944807
  12.7880943  22.2774288  19.4624807  12.4340943  23.4264288  20.3824807
  12.4390943  21.2704288  23.1954807  12.9630943  20.7764288  22.5644807
  13.0250943  21.4054288  23.9404807  12.6180943  21.3544288  26.7174807
  11.6680943  21.3204288  26.8314807  12.7990943  22.2644288  26.4824807
  11.9290943  20.5274288  19.1344807  12.4250943  20.2944288  19.9194807
  11.7310943  19.6884288  18.7184807  13.3580943  19.1634288  21.6684807
  13.2480943  19.0094288  22.6064807  14.1190943  18.6354288  21.4264807
  11.7040943  15.1024288  28.1264807  12.3420943  15.7164288  28.4924807
  11.8520943  15.1394288  27.1814807   8.4530943  14.4754288  27.0004807
   7.5790943  14.8094288  26.7974807   8.3440943  14.0034288  27.8254807
   9.3600943  16.6824288  28.3844807   9.0320943  15.8684288  28.0044807
  10.3090943  16.6394288  28.2614807   6.2010943  15.3924288  25.9394807
   5.4180943  15.8674288  26.2194807   5.9070943  14.4884288  25.8314807
  10.7530943  16.0954288  23.9844807  11.1930943  16.0394288  23.1364807
  10.4830943  17.0104288  24.0554807  12.6170943  15.7264288  21.9954807
  12.5550943  14.7824288  21.8484807  13.3960943  15.8344288  22.5404807
   4.0860943  17.8114288  21.4514807   3.2730943  17.4374288  21.1104807
   4.5900943  17.0554288  21.7534807   8.5880943  14.4754288  22.6894807
   9.1910943  15.0474288  23.1644807   7.8480943  15.0394288  22.4674807
   2.1110943  15.9614288  20.0554807   1.4810943  15.2604288  20.2224807
   1.5710943  16.7214288  19.8394807   7.7440943  22.6744288   3.4324807
   7.6630943  21.7594288   3.1614807   7.3300943  23.1714288   2.7264807
   5.8760943  24.4524288   5.3134807   5.1000943  23.9724288   5.6034807
   6.5270943  23.7724288   5.1394807   5.3170943  27.1284288   5.3204807
   5.2470943  26.1874288   5.1594807   6.0790943  27.2184288   5.8924807
   6.3470943  19.9354288   5.5474807   6.7240943  19.0624288   5.4344807
   6.2490943  20.2704288   4.6564807  10.1290943  17.4304288   2.4804807
  10.9500943  16.9394288   2.5224807  10.1630943  18.0194288   3.2334807
   2.3180943  21.2764288   5.3414807   2.8260943  21.7744288   5.9824807
   2.8500943  20.4994288   5.1654807  14.4190943  19.4464288   9.0444807
  13.7150943  19.8354288   8.5264807  14.6850943  20.1414288   9.6464807
   6.9890943  26.0284288   1.1074807   6.3710943  26.4934288   0.5434807
   7.5010943  26.7204288   1.5244807   1.8520943  25.5554288   7.7854807
   1.5190943  26.1824288   8.4274807   2.0290943  26.0814288   7.0054807
  10.3660943  19.3704288   5.2534807   9.6610943  19.6584288   5.8334807
  10.7270943  20.1804288   4.8934807   1.0640943  27.5234288   9.6004807
   1.6820943  28.1984288   9.3184807   0.2030943  27.9324288   9.5094807
  13.4340943  18.8154288   5.6434807  12.4870943  18.8494288   5.7754807
  13.7590943  19.6294288   6.0284807   3.9660943  15.1154288   3.9394807
   4.2740943  14.5604288   3.2234807   3.0360943  15.2494288   3.7564807
  10.8120943  27.5534288   1.3194807  10.7020943  26.6114288   1.4444807
  10.8090943  27.9154288   2.2054807   8.9160943  25.7354288   7.5584807
   9.3330943  25.5214288   6.7234807   9.6400943  25.9924288   8.1294807
   6.3540943  23.1804288   0.6754807   5.4270943  23.1144288   0.9044807
   6.5070943  24.1184288   0.5614807  12.8630943  24.1334288   7.6504807
  12.0340943  24.2034288   7.1754807  13.4580943  24.7194288   7.1814807
  10.3840943  24.7424288   1.1794807   9.7650943  24.4044288   0.5314807
  10.3670943  24.0984288   1.8874807   9.8270943  20.9204288   8.5954807
   9.4140943  21.7464288   8.8494807   9.0940943  20.3354288   8.4034807
   1.9600943  23.7064288   3.4574807   1.5560943  22.9944288   2.9624807
   2.0460943  23.3624288   4.3464807   2.4280943  27.3934288   5.6214807
   2.1310943  26.7884288   4.9424807   3.3780943  27.4314288   5.5104807
   0.6730943  20.4814288   7.2374807   1.2240943  20.5904288   6.4624807
   1.1870943  20.8544288   7.9524807   1.5200943  27.1314288  12.2724807
   0.6230943  27.3554288  12.5194807   1.5450943  27.2554288  11.3234807
  13.5000943  27.9194288  11.5124807  13.6260943  27.6804288  10.5944807
  13.5420943  27.0874288  11.9854807  13.3520943  19.9724288  12.4774807
  12.7370943  20.4804288  11.9494807  13.0320943  19.0724288  12.4204807
   1.1270943  15.9444288   4.3404807   0.6840943  16.7254288   4.0094807
   1.6850943  16.2674288   5.0474807   5.4140943  18.8114288   9.9444807
   4.9520943  19.0194288  10.7564807   5.0120943  17.9974288   9.6414807
  10.4140943  20.0324288  11.0734807   9.5640943  19.7334288  11.3944807
  10.2540943  20.2764288  10.1624807   7.5090943  21.5324288  13.1734807
   7.8350943  20.6994288  12.8334807   8.2970943  22.0554288  13.3214807
   3.1640943  16.4894288   6.1994807   3.4620943  17.3954288   6.1184807
   3.7130943  16.0014288   5.5854807   0.9180943  21.0684288   2.0684807
   0.6920943  20.8514288   2.9734807   0.1380943  21.5004288   1.7234807
   8.1480943  21.0744288   0.6674807   7.5490943  21.7984288   0.4844807
   8.6960943  21.0124288  -0.1145193   3.3580943  21.9664288  12.7344807
   3.2630943  21.0264288  12.5844807   4.2010943  22.1884288  12.3394807
   6.7550943  19.7104288   2.6984807   7.1470943  20.0284288   1.8844807
   7.1160943  18.8324288   2.8124807   5.0640943  18.4614288  13.9574807
   4.3740943  18.2684288  14.5924807   5.8070943  18.7454288  14.4904807
   7.3400943  22.3014288   6.7934807   6.6080943  22.8104288   7.1424807
   6.9420943  21.4844288   6.4924807   3.7780943  18.9764288   5.1984807
   3.7810943  18.5354288   4.3484807   4.6730943  19.2984288   5.3054807
   7.8030943  17.7544288   6.2054807   7.8200943  18.2054288   7.0494807
   7.5540943  16.8554288   6.4184807   4.0790943  23.0364288   6.9444807
   4.4460943  22.5624288   7.6914807   3.8890943  23.9114288   7.2854807
   1.8680943  22.0774288   9.2634807   1.5640943  22.9574288   9.4884807
   2.8230943  22.1374288   9.2994807  11.1550943  25.2804288   5.6524807
  11.8750943  25.7764288   5.2624807  10.9540943  24.6024288   5.0084807
   6.5370943  25.3514288  11.5394807   6.4710943  24.4304288  11.2854807
   5.9080943  25.4484288  12.2544807   1.1260943  23.3764288  13.2944807
   0.8260943  23.5224288  12.3974807   1.8970943  22.8174288  13.2014807
   6.4690943  28.1734288  11.2894807   6.4830943  27.2414288  11.0714807
   5.7620943  28.2594288  11.9284807  12.6800943  24.8144288  10.6364807
  11.9550943  25.4074288  10.4394807  13.2080943  24.8064288   9.8384807
   8.2100943  26.5404288   4.1354807   8.5620943  25.9434288   3.4754807
   7.3260943  26.2144288   4.3064807   4.2960943  27.2994288   1.5424807
   4.9840943  27.8464288   1.9234807   3.5100943  27.8444288   1.5774807
   3.5990943  24.3044288   1.1544807   4.0550943  25.1154288   1.3804807
   3.2480943  23.9864288   1.9864807   7.9940943  18.8994288   8.8374807
   8.3620943  18.0794288   9.1654807   7.1330943  18.9594288   9.2534807
   3.3280943  20.1334288   1.0624807   2.6200943  20.6024288   1.5034807
   3.6130943  19.4764288   1.6964807   4.9540943  21.5534288   9.0614807
   5.4520943  22.0284288   9.7264807   5.0960943  20.6294288   9.2684807
   7.3600943  16.8594288   2.5024807   7.2370943  16.8774288   1.5524807
   8.3080943  16.9064288   2.6214807  12.1600943  17.7704288   9.9044807
  11.6580943  18.5104288  10.2434807  12.9760943  18.1584288   9.5884807
  10.4530943  23.0134288   3.3504807   9.5120943  23.0284288   3.5254807
  10.7670943  22.2274288   3.7964807   7.7690943  27.5704288  13.8334807
   7.1630943  27.5934288  13.0934807   7.4650943  26.8384288  14.3704807
   3.7060943  25.3564288  12.3634807   2.9410943  25.9254288  12.2784807
   3.8880943  25.0644288  11.4704807  10.8490943  27.0874288  12.9214807
  11.5900943  27.4244288  12.4174807  10.0860943  27.2564288  12.3674807
   0.6260943  20.6714288  11.6924807   0.0950943  20.1804288  11.0644807
   1.2940943  21.1004288  11.1584807   9.5230943  25.1384288  11.4564807
   9.9370943  25.2934288  12.3054807   8.5880943  25.2644288  11.6194807
   9.9960943  22.4784288  13.4604807  10.5780943  21.7234288  13.3724807
  10.1720943  23.0094288  12.6834807   1.1130943  17.6384288  11.7724807
   1.0180943  17.0204288  11.0474807   0.5320943  18.3644288  11.5454807
   3.8790943  16.1954288   8.8044807   3.4310943  16.2174288   7.9594807
   3.2450943  15.7974288   9.4014807   4.2850943  25.0904288   9.4264807
   4.7040943  25.9344288   9.2534807   3.3660943  25.2284288   9.1964807
   6.6210943  22.8224288  10.8094807   6.7410943  22.2264288  11.5494807
   7.4810943  22.8594288  10.3904807   8.9600943  23.3764288   9.3864807
   8.4340943  23.9004288   8.7824807   9.3030943  24.0084288  10.0174807
   3.3880943  19.3644288  12.0674807   3.9780943  19.0564288  12.7554807
   2.5700943  18.8924288  12.2234807   8.2070943  18.9814288  12.3004807
   7.5190943  18.3194288  12.2354807   8.9280943  18.5354288  12.7454807
   0.9910943  28.2894288   1.7644807   0.6900943  28.1664288   2.6644807
   0.8840943  27.4304288   1.3554807  14.2220943  25.6694288   3.8144807
  14.5920943  24.8854288   3.4084807  14.8620943  26.3574288   3.6364807
  11.2050943  27.0524288   9.2274807  10.3910943  27.4824288   9.4904807
  11.6120943  27.6644288   8.6144807  13.1640943  23.0444288   1.1204807
  12.7880943  22.2774288   0.6884807  12.4340943  23.4264288   1.6074807
  12.5540943  22.1914288  10.7544807  12.3230943  21.9624288   9.8544807
  12.8140943  23.1114288  10.7084807  10.9930943  17.4174288  13.5324807
  11.8700943  17.4254288  13.9154807  11.0050943  16.6804288  12.9214807
  12.4390943  21.2704288   4.4214807  12.9630943  20.7764288   3.7904807
  13.0250943  21.4054288   5.1654807  12.6180943  21.3544288   7.9434807
  11.6680943  21.3204288   8.0574807  12.7990943  22.2644288   7.7084807
  11.9290943  20.5274288   0.3604807  12.4250943  20.2944288   1.1454807
  11.7310943  19.6884288  -0.0555193  13.3580943  19.1634288   2.8944807
  13.2480943  19.0094288   3.8324807  14.1190943  18.6354288   2.6514807
   5.0750943  16.2554288  12.2594807   5.0140943  16.8474288  13.0094807
   6.0150943  16.1484288  12.1144807   7.7120943  15.9124288  11.8994807
   8.3260943  16.2304288  11.2374807   8.2570943  15.4274288  12.5184807
   8.4530943  14.4754288   8.2264807   7.5790943  14.8094288   8.0234807
   8.3440943  14.0034288   9.0514807   9.3600943  16.6824288   9.6104807
   9.0320943  15.8684288   9.2304807  10.3090943  16.6394288   9.4864807
   6.2010943  15.3924288   7.1654807   5.4180943  15.8674288   7.4454807
   5.9070943  14.4884288   7.0564807  10.7530943  16.0954288   5.2104807
  11.1930943  16.0394288   4.3624807  10.4830943  17.0104288   5.2814807
  12.6170943  15.7264288   3.2214807  12.5550943  14.7824288   3.0744807
  13.3960943  15.8344288   3.7664807   4.0860943  17.8114288   2.6774807
   3.2730943  17.4374288   2.3364807   4.5900943  17.0554288   2.9794807
   8.5880943  14.4754288   3.9154807   9.1910943  15.0474288   4.3904807
   7.8480943  15.0394288   3.6924807   2.1110943  15.9614288   1.2814807
   1.4810943  15.2604288   1.4484807   1.5710943  16.7214288   1.0644807
   2.2360943  15.2394288  13.7164807   1.9550943  15.7434288  12.9524807
   2.6180943  14.4424288  13.3504807   8.8380943  14.6554288  14.2944807
   8.7250943  14.9744288  15.1894807   9.6550943  15.0564288  13.9984807
   7.7440943   3.9004288  22.2064807   7.6630943   2.9854288  21.9364807
   7.3300943   4.3964288  21.5004807   5.8760943   5.6784288  24.0874807
   5.1000943   5.1984288  24.3774807   6.5270943   4.9984288  23.9134807
   9.8960943  10.0844288  22.8674807   9.4350943   9.3124288  23.1964807
  10.7090943  10.1104288  23.3734807   6.1230943  12.3694288  22.4884807
   5.5040943  12.8254288  21.9174807   6.9780943  12.5244288  22.0874807
   5.3170943   8.3534288  24.0944807   5.2470943   7.4124288  23.9334807
   6.0790943   8.4434288  24.6674807   6.3470943   1.1604288  24.3214807
   6.7240943   0.2874288  24.2094807   6.2490943   1.4964288  23.4304807
   2.3180943   2.5014288  24.1164807   2.8260943   3.0004288  24.7564807
   2.8500943   1.7254288  23.9404807  14.4190943   0.6724288  27.8194807
  13.7150943   1.0604288  27.3004807  14.6850943   1.3674288  28.4214807
   6.9890943   7.2534288  19.8814807   6.3710943   7.7184288  19.3174807
   7.5010943   7.9464288  20.2984807   1.8520943   6.7814288  26.5594807
   1.5190943   7.4084288  27.2014807   2.0290943   7.3074288  25.7794807
  10.3660943   0.5954288  24.0274807   9.6610943   0.8844288  24.6074807
  10.7270943   1.4054288  23.6674807   1.0640943   8.7494288  28.3744807
   1.6820943   9.4244288  28.0934807   0.2030943   9.1584288  28.2834807
  11.9820943  10.2134288  26.2904807  11.2980943  10.8834288  26.2814807
  12.5210943  10.4114288  25.5244807  13.4340943   0.0414288  24.4184807
  12.4870943   0.0754288  24.5494807  13.7590943   0.8554288  24.8034807
   9.5180943  12.0574288  25.0044807   9.5300943  11.6544288  24.1364807
   8.9650943  12.8324288  24.9004807  10.8120943   8.7794288  20.0934807
  10.7020943   7.8364288  20.2184807  10.8090943   9.1404288  20.9794807
   8.9160943   6.9604288  26.3324807   9.3330943   6.7464288  25.4984807
   9.6400943   7.2184288  26.9034807   6.3540943   4.4054288  19.4494807
   5.4270943   4.3394288  19.6784807   6.5070943   5.3434288  19.3354807
   6.3410943   0.6774288  16.4464807   5.4020943   0.8394288  16.5314807
   6.6600943   1.3964288  15.9004807  12.8630943   5.3594288  26.4244807
  12.0340943   5.4284288  25.9494807  13.4580943   5.9444288  25.9564807
  10.3840943   5.9674288  19.9534807   9.7650943   5.6294288  19.3064807
  10.3670943   5.3234288  20.6614807   9.8270943   2.1464288  27.3704807
   9.4140943   2.9714288  27.6244807   9.0940943   1.5604288  27.1774807
   1.9600943   4.9324288  22.2314807   1.5560943   4.2204288  21.7364807
   2.0460943   4.5874288  23.1204807   2.4280943   8.6194288  24.3954807
   2.1310943   8.0134288  23.7164807   3.3780943   8.6564288  24.2844807
   0.6730943   1.7064288  26.0114807   1.2240943   1.8164288  25.2374807
   1.1870943   2.0804288  26.7274807  10.5170943  12.1924288  28.0584807
  10.0400943  12.9994288  27.8654807   9.8330943  11.5404288  28.2104807
   8.5610943   5.2064288  16.9604807   9.0000943   4.3684288  16.8144807
   9.2730943   5.8394288  17.0474807   6.6700943  10.1464288  20.9284807
   7.1100943  10.8884288  20.5144807   6.6090943  10.3884288  21.8524807
   9.3370943  13.1334288  18.2854807   9.1770943  12.8434288  19.1834807
   9.1720943  12.3574288  17.7494807   1.8160943  12.9134288  20.0624807
   1.6400943  11.9964288  19.8494807   0.9620943  13.2714288  20.3024807
   9.0400943  10.6414288  16.8444807   8.3460943  10.6394288  16.1854807
   9.7820943  10.2174288  16.4144807   8.6050943  12.2684288  20.9194807
   9.0600943  11.4874288  21.2334807   8.9440943  12.9784288  21.4634807
   0.9180943   2.2934288  20.8434807   0.6920943   2.0774288  21.7474807
   0.1380943   2.7264288  20.4974807   8.1480943   2.3004288  19.4424807
   7.5490943   3.0234288  19.2584807   8.6960943   2.2374288  18.6594807
   6.7550943   0.9364288  21.4724807   7.1470943   1.2534288  20.6594807
   7.1160943   0.0574288  21.5864807   7.3400943   3.5274288  25.5674807
   6.6080943   4.0354288  25.9164807   6.9420943   2.7104288  25.2664807
   3.8400943   1.2034288  16.9634807   3.9610943   1.1624288  17.9124807
   3.4550943   2.0664288  16.8084807   2.8520943   3.5134288  16.3614807
   2.2840943   3.0654288  15.7354807   3.5610943   3.8734288  15.8284807
   4.0790943   4.2624288  25.7194807   4.4460943   3.7884288  26.4654807
   3.8890943   5.1364288  26.0604807   1.8680943   3.3034288  28.0374807
   1.5640943   4.1824288  28.2624807   2.8230943   3.3634288  28.0734807
  11.1550943   6.5064288  24.4274807  11.8750943   7.0014288  24.0364807
  10.9540943   5.8274288  23.7824807   9.3310943   2.2714288  16.8664807
  10.2190943   2.5834288  16.6914807   9.3020943   1.3994288  16.4744807
   5.3270943   8.4444288  17.5454807   5.6690943   9.1884288  17.0494807
   4.4990943   8.7574288  17.9074807  11.6030943   3.5834288  16.3344807
  11.5190943   4.0144288  15.4834807  12.3220943   4.0424288  16.7664807
  12.6310943  10.4374288  19.0624807  11.9890943   9.7824288  19.3364807
  12.2450943  10.8424288  18.2864807   8.2100943   7.7654288  22.9094807
   8.5620943   7.1684288  22.2494807   7.3260943   7.4404288  23.0804807
   4.2960943   8.5254288  20.3164807   4.9840943   9.0724288  20.6974807
   3.5100943   9.0694288  20.3514807   3.5990943   5.5304288  19.9294807
   4.0550943   6.3404288  20.1554807   3.2480943   5.2124288  20.7614807
   5.9020943  11.0404288  27.1584807   6.5470943  11.2464288  27.8354807
   6.2650943  10.2794288  26.7054807   7.1760943   9.0444288  25.8764807
   7.8180943   8.3434288  25.9894807   7.7010943   9.8234288  25.6954807
  10.6030943   7.2464288  17.2614807  10.3150943   7.7074288  18.0494807
  11.3980943   6.7854288  17.5294807   2.8200943  10.7384288  17.1914807
   2.8110943  11.4714288  16.5764807   1.9000943  10.4914288  17.2844807
   5.8060943  10.8014288  15.8544807   5.9070943  10.5974288  14.9244807
   4.9060943  10.5474288  16.0594807   3.3280943   1.3594288  19.8364807
   2.6200943   1.8284288  20.2784807   3.6130943   0.7014288  20.4714807
   4.9540943   2.7794288  27.8364807   5.4520943   3.2534288  28.5014807
   5.0960943   1.8554288  28.0434807   4.4470943  13.3204288  20.5494807
   4.7020943  13.2824288  19.6274807   3.4990943  13.1934288  20.5414807
  10.4530943   4.2394288  22.1254807   9.5120943   4.2544288  22.2994807
  10.7670943   3.4534288  22.5714807   0.4310943   5.9214288  15.6854807
   1.1970943   5.8094288  16.2474807   0.5080943   5.2254288  15.0334807
  12.4550943  11.4104288  23.8004807  12.5800943  12.2334288  24.2724807
  13.3220943  11.1994288  23.4524807   3.0370943  12.6764288  15.2944807
   3.8300943  12.9654288  14.8424807   2.5180943  12.2454288  14.6154807
   3.5550943   7.8964288  15.1584807   3.4500943   7.2824288  15.8854807
   3.3870943   7.3734288  14.3754807   6.7950943   6.9584288  15.7634807
   6.2460943   7.4054288  16.4074807   7.4170943   6.4534288  16.2864807
   2.4630943   5.9174288  17.6594807   2.8840943   5.7514288  18.5024807
   2.5880943   5.1074288  17.1654807   4.9760943   4.9414288  14.9074807
   5.4960943   4.2264288  14.5414807   5.6220943   5.5804288  15.2074807
   4.2850943   6.3164288  28.2004807   4.7040943   7.1594288  28.0284807
   3.3660943   6.4534288  27.9714807   8.9600943   4.6014288  28.1604807
   8.4340943   5.1264288  27.5574807   9.3030943   5.2344288  28.7914807
   1.3590943   1.9914288  14.6054807   1.1580943   1.1274288  14.9664807
   1.1880943   1.9044288  13.6674807   5.5400943  13.0224288  17.1974807
   6.4350943  13.3614288  17.2194807   5.5720943  12.3004288  16.5694807
   0.9910943   9.5154288  20.5384807   0.6900943   9.3914288  21.4384807
   0.8840943   8.6564288  20.1304807  13.2160943   6.0394288  17.7444807
  13.9770943   6.6094288  17.8504807  13.2310943   5.4724288  18.5154807
  14.2220943   6.8944288  22.5884807  14.5920943   6.1114288  22.1824807
  14.8620943   7.5834288  22.4104807  11.2050943   8.2784288  28.0014807
  10.3910943   8.7084288  28.2644807  11.6120943   8.8904288  27.3884807
  13.2670943   6.3334288  14.9014807  13.5420943   7.2414288  14.7734807
  13.0790943   6.2694288  15.8384807  13.1640943   4.2704288  19.8944807
  12.7880943   3.5024288  19.4624807  12.4340943   4.6524288  20.3824807
  12.4390943   2.4954288  23.1954807  12.9630943   2.0024288  22.5644807
  13.0250943   2.6304288  23.9404807  12.6180943   2.5794288  26.7174807
  11.6680943   2.5464288  26.8314807  12.7990943   3.4894288  26.4824807
  11.9290943   1.7534288  19.1344807  12.4250943   1.5204288  19.9194807
  11.7310943   0.9144288  18.7184807  13.3580943   0.3894288  21.6684807
  13.2480943   0.2344288  22.6064807  14.1190943  -0.1385712  21.4264807
  11.2630943  13.0304288  21.5284807  11.8580943  12.7084288  20.8524807
  11.5200943  12.5574288  22.3194807   2.8690943  11.0174288  27.2784807
   2.6290943  11.2854288  26.3914807   3.8100943  11.1884288  27.3334807
  14.1300943  13.0374288  28.0794807  13.6360943  13.4344288  27.3624807
  13.5210943  12.4124288  28.4734807  11.8140943  13.6794288  25.3584807
  11.3540943  14.4314288  24.9844807  11.1850943  12.9604288  25.2994807
   2.2430943  11.9884288  24.5334807   2.7600943  11.3774288  24.0084807
   2.8930943  12.4914288  25.0244807   4.9830943  12.8794288  25.3604807
   5.2710943  12.6244288  24.4834807   5.4950943  12.3274288  25.9504807
   1.1270943  13.7334288  17.2774807   1.8590943  13.4494288  16.7304807
   1.3870943  13.4944288  18.1674807   7.7440943   3.9004288   3.4324807
   7.6630943   2.9854288   3.1614807   7.3300943   4.3964288   2.7264807
   5.8760943   5.6784288   5.3134807   5.1000943   5.1984288   5.6034807
   6.5270943   4.9984288   5.1394807   9.8960943  10.0844288   4.0934807
   9.4350943   9.3124288   4.4224807  10.7090943  10.1104288   4.5984807
   6.1230943  12.3694288   3.7134807   5.5040943  12.8254288   3.1434807
   6.9780943  12.5244288   3.3124807   5.3170943   8.3534288   5.3204807
   5.2470943   7.4124288   5.1594807   6.0790943   8.4434288   5.8924807
   6.3470943   1.1604288   5.5474807   6.7240943   0.2874288   5.4344807
   6.2490943   1.4964288   4.6564807   2.3180943   2.5014288   5.3414807
   2.8260943   3.0004288   5.9824807   2.8500943   1.7254288   5.1654807
  14.4190943   0.6724288   9.0444807  13.7150943   1.0604288   8.5264807
  14.6850943   1.3674288   9.6464807   6.9890943   7.2534288   1.1074807
   6.3710943   7.7184288   0.5434807   7.5010943   7.9464288   1.5244807
   1.8520943   6.7814288   7.7854807   1.5190943   7.4084288   8.4274807
   2.0290943   7.3074288   7.0054807  10.3660943   0.5954288   5.2534807
   9.6610943   0.8844288   5.8334807  10.7270943   1.4054288   4.8934807
   1.0640943   8.7494288   9.6004807   1.6820943   9.4244288   9.3184807
   0.2030943   9.1584288   9.5094807  11.9820943  10.2134288   7.5154807
  11.2980943  10.8834288   7.5074807  12.5210943  10.4114288   6.7504807
  13.4340943   0.0414288   5.6434807  12.4870943   0.0754288   5.7754807
  13.7590943   0.8554288   6.0284807   9.5180943  12.0574288   6.2304807
   9.5300943  11.6544288   5.3624807   8.9650943  12.8324288   6.1264807
  10.8120943   8.7794288   1.3194807  10.7020943   7.8364288   1.4444807
  10.8090943   9.1404288   2.2054807   8.9160943   6.9604288   7.5584807
   9.3330943   6.7464288   6.7234807   9.6400943   7.2184288   8.1294807
   6.3540943   4.4054288   0.6754807   5.4270943   4.3394288   0.9044807
   6.5070943   5.3434288   0.5614807  12.8630943   5.3594288   7.6504807
  12.0340943   5.4284288   7.1754807  13.4580943   5.9444288   7.1814807
  10.3840943   5.9674288   1.1794807   9.7650943   5.6294288   0.5314807
  10.3670943   5.3234288   1.8874807   9.8270943   2.1464288   8.5954807
   9.4140943   2.9714288   8.8494807   9.0940943   1.5604288   8.4034807
   1.9600943   4.9324288   3.4574807   1.5560943   4.2204288   2.9624807
   2.0460943   4.5874288   4.3464807   2.4280943   8.6194288   5.6214807
   2.1310943   8.0134288   4.9424807   3.3780943   8.6564288   5.5104807
   0.6730943   1.7064288   7.2374807   1.2240943   1.8164288   6.4624807
   1.1870943   2.0804288   7.9524807   1.5200943   8.3574288  12.2724807
   0.6230943   8.5814288  12.5194807   1.5450943   8.4804288  11.3234807
   6.6700943  10.1464288   2.1544807   7.1100943  10.8884288   1.7404807
   6.6090943  10.3884288   3.0784807   2.1450943  11.1704288  13.0564807
   2.1170943  11.5754288  12.1894807   1.9820943  10.2414288  12.8934807
   7.3620943  12.8474288  10.0824807   7.8760943  12.7584288  10.8844807
   6.5190943  13.1934288  10.3754807   1.8160943  12.9134288   1.2874807
   1.6400943  11.9964288   1.0744807   0.9620943  13.2714288   1.5274807
   8.6050943  12.2684288   2.1454807   9.0600943  11.4874288   2.4594807
   8.9440943  12.9784288   2.6894807  13.3520943   1.1984288  12.4774807
  12.7370943   1.7064288  11.9494807  13.0320943   0.2974288  12.4204807
  10.4140943   1.2584288  11.0734807   9.5640943   0.9584288  11.3944807
  10.2540943   1.5024288  10.1624807   7.5090943   2.7584288  13.1734807
   7.8350943   1.9244288  12.8334807   8.2970943   3.2814288  13.3214807
   0.9180943   2.2934288   2.0684807   0.6920943   2.0774288   2.9734807
   0.1380943   2.7264288   1.7234807   8.1480943   2.3004288   0.6674807
   7.5490943   3.0234288   0.4844807   8.6960943   2.2374288  -0.1145193
   3.3580943   3.1924288  12.7344807   3.2630943   2.2514288  12.5844807
   4.2010943   3.4134288  12.3394807   6.7550943   0.9364288   2.6984807
   7.1470943   1.2534288   1.8844807   7.1160943   0.0574288   2.8124807
   7.3400943   3.5274288   6.7934807   6.6080943   4.0354288   7.1424807
   6.9420943   2.7104288   6.4924807   4.0790943   4.2624288   6.9444807
   4.4460943   3.7884288   7.6914807   3.8890943   5.1364288   7.2854807
   1.8680943   3.3034288   9.2634807   1.5640943   4.1824288   9.4884807
   2.8230943   3.3634288   9.2994807  11.1550943   6.5064288   5.6524807
  11.8750943   7.0014288   5.2624807  10.9540943   5.8274288   5.0084807
   6.5370943   6.5774288  11.5394807   6.4710943   5.6564288  11.2854807
   5.9080943   6.6744288  12.2544807   1.1260943   4.6024288  13.2944807
   0.8260943   4.7474288  12.3974807   1.8970943   4.0424288  13.2014807
   6.4690943   9.3994288  11.2894807   6.4830943   8.4674288  11.0714807
   5.7620943   9.4854288  11.9284807  12.6800943   6.0394288  10.6364807
  11.9550943   6.6324288  10.4394807  13.2080943   6.0324288   9.8384807
   8.2100943   7.7654288   4.1354807   8.5620943   7.1684288   3.4754807
   7.3260943   7.4404288   4.3064807   4.2960943   8.5254288   1.5424807
   4.9840943   9.0724288   1.9234807   3.5100943   9.0694288   1.5774807
   3.5990943   5.5304288   1.1544807   4.0550943   6.3404288   1.3804807
   3.2480943   5.2124288   1.9864807   5.9020943  11.0404288   8.3844807
   6.5470943  11.2464288   9.0614807   6.2650943  10.2794288   7.9314807
   7.1760943   9.0444288   7.1014807   7.8180943   8.3434288   7.2154807
   7.7010943   9.8234288   6.9214807   8.9490943   9.8434288  10.3054807
   9.2850943  10.4304288  10.9834807   8.0290943   9.7124288  10.5354807
   4.7780943   9.8924288  13.4744807   4.4580943   9.1734288  14.0184807
   4.1040943  10.5684288  13.5474807   3.3280943   1.3594288   1.0624807
   2.6200943   1.8284288   1.5034807   3.6130943   0.7014288   1.6964807
   4.9540943   2.7794288   9.0614807   5.4520943   3.2534288   9.7264807
   5.0960943   1.8554288   9.2684807   4.4470943  13.3204288   1.7744807
   4.7020943  13.2824288   0.8524807   3.4990943  13.1934288   1.7674807
  10.4530943   4.2394288   3.3504807   9.5120943   4.2544288   3.5254807
  10.7670943   3.4534288   3.7964807  12.4550943  11.4104288   5.0264807
  12.5800943  12.2334288   5.4984807  13.3220943  11.1994288   4.6784807
   7.7690943   8.7964288  13.8334807   7.1630943   8.8194288  13.0934807
   7.4650943   8.0644288  14.3704807   3.7060943   6.5824288  12.3634807
   2.9410943   7.1504288  12.2784807   3.8880943   6.2904288  11.4704807
  10.8490943   8.3124288  12.9214807  11.5900943   8.6504288  12.4174807
  10.0860943   8.4824288  12.3674807   0.6260943   1.8974288  11.6924807
   0.0950943   1.4064288  11.0644807   1.2940943   2.3254288  11.1584807
   9.5230943   6.3644288  11.4564807   9.9370943   6.5184288  12.3054807
   8.5880943   6.4904288  11.6194807   9.9960943   3.7044288  13.4604807
  10.5780943   2.9494288  13.3724807  10.1720943   4.2344288  12.6834807
   4.2850943   6.3164288   9.4264807   4.7040943   7.1594288   9.2534807
   3.3660943   6.4534288   9.1964807   6.6210943   4.0484288  10.8094807
   6.7410943   3.4524288  11.5494807   7.4810943   4.0854288  10.3904807
   8.9600943   4.6014288   9.3864807   8.4340943   5.1264288   8.7824807
   9.3030943   5.2344288  10.0174807   2.1360943  12.6214288  10.5414807
   1.5980943  13.3464288  10.2224807   2.3890943  12.1444288   9.7514807
   3.3880943   0.5904288  12.0674807   3.9780943   0.2814288  12.7554807
   2.5700943   0.1184288  12.2234807   4.9920943  13.8564288  10.8004807
   4.9180943  14.7604288  11.1074807   4.0900943  13.5384288  10.7724807
   0.9910943   9.5154288   1.7644807   0.6900943   9.3914288   2.6644807
   0.8840943   8.6564288   1.3554807  14.2220943   6.8944288   3.8144807
  14.5920943   6.1114288   3.4084807  14.8620943   7.5834288   3.6364807
  11.2050943   8.2784288   9.2274807  10.3910943   8.7084288   9.4904807
  11.6120943   8.8904288   8.6144807  13.1640943   4.2704288   1.1204807
  12.7880943   3.5024288   0.6884807  12.4340943   4.6524288   1.6074807
  12.5540943   3.4174288  10.7544807  12.3230943   3.1884288   9.8544807
  12.8140943   4.3374288  10.7084807  12.4390943   2.4954288   4.4214807
  12.9630943   2.0024288   3.7904807  13.0250943   2.6304288   5.1654807
  12.6180943   2.5794288   7.9434807  11.6680943   2.5464288   8.0574807
  12.7990943   3.4894288   7.7084807  11.9290943   1.7534288   0.3604807
  12.4250943   1.5204288   1.1454807  11.7310943   0.9144288  -0.0555193
  13.3580943   0.3894288   2.8944807  13.2480943   0.2344288   3.8324807
  14.1190943  -0.1385712   2.6514807  11.2630943  13.0304288   2.7544807
  11.8580943  12.7084288   2.0774807  11.5200943  12.5574288   3.5454807
   2.8690943  11.0174288   8.5044807   2.6290943  11.2854288   7.6174807
   3.8100943  11.1884288   8.5594807  11.8140943  13.6794288   6.5844807
  11.3540943  14.4314288   6.2094807  11.1850943  12.9604288   6.5254807
   2.2430943  11.9884288   5.7584807   2.7600943  11.3774288   5.2334807
   2.8930943  12.4914288   6.2494807   4.9830943  12.8794288   6.5854807
   5.2710943  12.6244288   5.7094807   5.4950943  12.3274288   7.1764807
   5.0500943  13.8014288  13.9524807   5.9770943  13.5654288  13.9964807
   5.0350943  14.6284288  13.4714807  13.2850943  13.3434288   0.9494807
  13.4600943  12.6574288   0.3064807  12.5870943  13.8684288   0.5574807
  28.6170000  28.4280000  28.9060000  90.0000000  90.0000000  90.0000000
